+ 0.1 1 2 cbr 1000 ------- 2 1.0 3.1 0 0
- 0.1 1 2 cbr 1000 ------- 2 1.0 3.1 0 0
+ 0.1 1 2 cbr 1000 ------- 2 1.0 3.1 1 1
+ 0.1 1 2 cbr 1000 ------- 2 1.0 3.1 2 2
+ 0.1 1 2 cbr 1000 ------- 2 1.0 3.1 3 3
+ 0.1 1 2 cbr 96 ------- 2 1.0 3.1 4 4
- 0.104 1 2 cbr 1000 ------- 2 1.0 3.1 1 1
- 0.108 1 2 cbr 1000 ------- 2 1.0 3.1 2 2
- 0.112 1 2 cbr 1000 ------- 2 1.0 3.1 3 3
r 0.114 1 2 cbr 1000 ------- 2 1.0 3.1 0 0
+ 0.114 2 3 cbr 1000 ------- 2 1.0 3.1 0 0
- 0.114 2 3 cbr 1000 ------- 2 1.0 3.1 0 0
- 0.116 1 2 cbr 96 ------- 2 1.0 3.1 4 4
r 0.118 1 2 cbr 1000 ------- 2 1.0 3.1 1 1
+ 0.118 2 3 cbr 1000 ------- 2 1.0 3.1 1 1
- 0.118706 2 3 cbr 1000 ------- 2 1.0 3.1 1 1
r 0.122 1 2 cbr 1000 ------- 2 1.0 3.1 2 2
+ 0.122 2 3 cbr 1000 ------- 2 1.0 3.1 2 2
- 0.123412 2 3 cbr 1000 ------- 2 1.0 3.1 2 2
r 0.126 1 2 cbr 1000 ------- 2 1.0 3.1 3 3
+ 0.126 2 3 cbr 1000 ------- 2 1.0 3.1 3 3
r 0.126384 1 2 cbr 96 ------- 2 1.0 3.1 4 4
+ 0.126384 2 3 cbr 96 ------- 2 1.0 3.1 4 4
- 0.128118 2 3 cbr 1000 ------- 2 1.0 3.1 3 3
+ 0.132768 1 2 cbr 1000 ------- 2 1.0 3.1 5 5
- 0.132768 1 2 cbr 1000 ------- 2 1.0 3.1 5 5
+ 0.132768 1 2 cbr 1000 ------- 2 1.0 3.1 6 6
+ 0.132768 1 2 cbr 1000 ------- 2 1.0 3.1 7 7
+ 0.132768 1 2 cbr 1000 ------- 2 1.0 3.1 8 8
+ 0.132768 1 2 cbr 96 ------- 2 1.0 3.1 9 9
- 0.132824 2 3 cbr 96 ------- 2 1.0 3.1 4 4
- 0.136768 1 2 cbr 1000 ------- 2 1.0 3.1 6 6
r 0.138706 2 3 cbr 1000 ------- 2 1.0 3.1 0 0
- 0.140768 1 2 cbr 1000 ------- 2 1.0 3.1 7 7
r 0.143412 2 3 cbr 1000 ------- 2 1.0 3.1 1 1
- 0.144768 1 2 cbr 1000 ------- 2 1.0 3.1 8 8
r 0.146768 1 2 cbr 1000 ------- 2 1.0 3.1 5 5
+ 0.146768 2 3 cbr 1000 ------- 2 1.0 3.1 5 5
- 0.146768 2 3 cbr 1000 ------- 2 1.0 3.1 5 5
r 0.148118 2 3 cbr 1000 ------- 2 1.0 3.1 2 2
- 0.148768 1 2 cbr 96 ------- 2 1.0 3.1 9 9
r 0.150768 1 2 cbr 1000 ------- 2 1.0 3.1 6 6
+ 0.150768 2 3 cbr 1000 ------- 2 1.0 3.1 6 6
- 0.151474 2 3 cbr 1000 ------- 2 1.0 3.1 6 6
r 0.152824 2 3 cbr 1000 ------- 2 1.0 3.1 3 3
r 0.153275 2 3 cbr 96 ------- 2 1.0 3.1 4 4
r 0.154768 1 2 cbr 1000 ------- 2 1.0 3.1 7 7
+ 0.154768 2 3 cbr 1000 ------- 2 1.0 3.1 7 7
- 0.15618 2 3 cbr 1000 ------- 2 1.0 3.1 7 7
r 0.158768 1 2 cbr 1000 ------- 2 1.0 3.1 8 8
+ 0.158768 2 3 cbr 1000 ------- 2 1.0 3.1 8 8
r 0.159152 1 2 cbr 96 ------- 2 1.0 3.1 9 9
+ 0.159152 2 3 cbr 96 ------- 2 1.0 3.1 9 9
- 0.160886 2 3 cbr 1000 ------- 2 1.0 3.1 8 8
+ 0.165536 1 2 cbr 1000 ------- 2 1.0 3.1 10 10
- 0.165536 1 2 cbr 1000 ------- 2 1.0 3.1 10 10
+ 0.165536 1 2 cbr 1000 ------- 2 1.0 3.1 11 11
+ 0.165536 1 2 cbr 1000 ------- 2 1.0 3.1 12 12
+ 0.165536 1 2 cbr 1000 ------- 2 1.0 3.1 13 13
+ 0.165536 1 2 cbr 96 ------- 2 1.0 3.1 14 14
- 0.165592 2 3 cbr 96 ------- 2 1.0 3.1 9 9
- 0.169536 1 2 cbr 1000 ------- 2 1.0 3.1 11 11
r 0.171474 2 3 cbr 1000 ------- 2 1.0 3.1 5 5
- 0.173536 1 2 cbr 1000 ------- 2 1.0 3.1 12 12
r 0.17618 2 3 cbr 1000 ------- 2 1.0 3.1 6 6
- 0.177536 1 2 cbr 1000 ------- 2 1.0 3.1 13 13
r 0.179536 1 2 cbr 1000 ------- 2 1.0 3.1 10 10
+ 0.179536 2 3 cbr 1000 ------- 2 1.0 3.1 10 10
- 0.179536 2 3 cbr 1000 ------- 2 1.0 3.1 10 10
r 0.180886 2 3 cbr 1000 ------- 2 1.0 3.1 7 7
- 0.181536 1 2 cbr 96 ------- 2 1.0 3.1 14 14
r 0.183536 1 2 cbr 1000 ------- 2 1.0 3.1 11 11
+ 0.183536 2 3 cbr 1000 ------- 2 1.0 3.1 11 11
- 0.184242 2 3 cbr 1000 ------- 2 1.0 3.1 11 11
r 0.185592 2 3 cbr 1000 ------- 2 1.0 3.1 8 8
r 0.186043 2 3 cbr 96 ------- 2 1.0 3.1 9 9
r 0.187536 1 2 cbr 1000 ------- 2 1.0 3.1 12 12
+ 0.187536 2 3 cbr 1000 ------- 2 1.0 3.1 12 12
- 0.188948 2 3 cbr 1000 ------- 2 1.0 3.1 12 12
r 0.191536 1 2 cbr 1000 ------- 2 1.0 3.1 13 13
+ 0.191536 2 3 cbr 1000 ------- 2 1.0 3.1 13 13
r 0.19192 1 2 cbr 96 ------- 2 1.0 3.1 14 14
+ 0.19192 2 3 cbr 96 ------- 2 1.0 3.1 14 14
- 0.193654 2 3 cbr 1000 ------- 2 1.0 3.1 13 13
+ 0.198304 1 2 cbr 1000 ------- 2 1.0 3.1 15 15
- 0.198304 1 2 cbr 1000 ------- 2 1.0 3.1 15 15
+ 0.198304 1 2 cbr 1000 ------- 2 1.0 3.1 16 16
+ 0.198304 1 2 cbr 1000 ------- 2 1.0 3.1 17 17
+ 0.198304 1 2 cbr 1000 ------- 2 1.0 3.1 18 18
+ 0.198304 1 2 cbr 96 ------- 2 1.0 3.1 19 19
- 0.19836 2 3 cbr 96 ------- 2 1.0 3.1 14 14
- 0.202304 1 2 cbr 1000 ------- 2 1.0 3.1 16 16
r 0.204242 2 3 cbr 1000 ------- 2 1.0 3.1 10 10
- 0.206304 1 2 cbr 1000 ------- 2 1.0 3.1 17 17
r 0.208948 2 3 cbr 1000 ------- 2 1.0 3.1 11 11
- 0.210304 1 2 cbr 1000 ------- 2 1.0 3.1 18 18
r 0.212304 1 2 cbr 1000 ------- 2 1.0 3.1 15 15
+ 0.212304 2 3 cbr 1000 ------- 2 1.0 3.1 15 15
- 0.212304 2 3 cbr 1000 ------- 2 1.0 3.1 15 15
r 0.213654 2 3 cbr 1000 ------- 2 1.0 3.1 12 12
- 0.214304 1 2 cbr 96 ------- 2 1.0 3.1 19 19
r 0.216304 1 2 cbr 1000 ------- 2 1.0 3.1 16 16
+ 0.216304 2 3 cbr 1000 ------- 2 1.0 3.1 16 16
- 0.21701 2 3 cbr 1000 ------- 2 1.0 3.1 16 16
r 0.21836 2 3 cbr 1000 ------- 2 1.0 3.1 13 13
r 0.218811 2 3 cbr 96 ------- 2 1.0 3.1 14 14
r 0.220304 1 2 cbr 1000 ------- 2 1.0 3.1 17 17
+ 0.220304 2 3 cbr 1000 ------- 2 1.0 3.1 17 17
- 0.221716 2 3 cbr 1000 ------- 2 1.0 3.1 17 17
r 0.224304 1 2 cbr 1000 ------- 2 1.0 3.1 18 18
+ 0.224304 2 3 cbr 1000 ------- 2 1.0 3.1 18 18
r 0.224688 1 2 cbr 96 ------- 2 1.0 3.1 19 19
+ 0.224688 2 3 cbr 96 ------- 2 1.0 3.1 19 19
- 0.226422 2 3 cbr 1000 ------- 2 1.0 3.1 18 18
+ 0.231072 1 2 cbr 1000 ------- 2 1.0 3.1 20 20
- 0.231072 1 2 cbr 1000 ------- 2 1.0 3.1 20 20
+ 0.231072 1 2 cbr 1000 ------- 2 1.0 3.1 21 21
+ 0.231072 1 2 cbr 1000 ------- 2 1.0 3.1 22 22
+ 0.231072 1 2 cbr 1000 ------- 2 1.0 3.1 23 23
+ 0.231072 1 2 cbr 96 ------- 2 1.0 3.1 24 24
- 0.231128 2 3 cbr 96 ------- 2 1.0 3.1 19 19
- 0.235072 1 2 cbr 1000 ------- 2 1.0 3.1 21 21
r 0.23701 2 3 cbr 1000 ------- 2 1.0 3.1 15 15
- 0.239072 1 2 cbr 1000 ------- 2 1.0 3.1 22 22
r 0.241716 2 3 cbr 1000 ------- 2 1.0 3.1 16 16
- 0.243072 1 2 cbr 1000 ------- 2 1.0 3.1 23 23
r 0.245072 1 2 cbr 1000 ------- 2 1.0 3.1 20 20
+ 0.245072 2 3 cbr 1000 ------- 2 1.0 3.1 20 20
- 0.245072 2 3 cbr 1000 ------- 2 1.0 3.1 20 20
r 0.246422 2 3 cbr 1000 ------- 2 1.0 3.1 17 17
- 0.247072 1 2 cbr 96 ------- 2 1.0 3.1 24 24
r 0.249072 1 2 cbr 1000 ------- 2 1.0 3.1 21 21
+ 0.249072 2 3 cbr 1000 ------- 2 1.0 3.1 21 21
- 0.249778 2 3 cbr 1000 ------- 2 1.0 3.1 21 21
r 0.251128 2 3 cbr 1000 ------- 2 1.0 3.1 18 18
r 0.251579 2 3 cbr 96 ------- 2 1.0 3.1 19 19
r 0.253072 1 2 cbr 1000 ------- 2 1.0 3.1 22 22
+ 0.253072 2 3 cbr 1000 ------- 2 1.0 3.1 22 22
- 0.254484 2 3 cbr 1000 ------- 2 1.0 3.1 22 22
r 0.257072 1 2 cbr 1000 ------- 2 1.0 3.1 23 23
+ 0.257072 2 3 cbr 1000 ------- 2 1.0 3.1 23 23
r 0.257456 1 2 cbr 96 ------- 2 1.0 3.1 24 24
+ 0.257456 2 3 cbr 96 ------- 2 1.0 3.1 24 24
- 0.25919 2 3 cbr 1000 ------- 2 1.0 3.1 23 23
+ 0.26384 1 2 cbr 1000 ------- 2 1.0 3.1 25 25
- 0.26384 1 2 cbr 1000 ------- 2 1.0 3.1 25 25
+ 0.26384 1 2 cbr 1000 ------- 2 1.0 3.1 26 26
+ 0.26384 1 2 cbr 1000 ------- 2 1.0 3.1 27 27
+ 0.26384 1 2 cbr 1000 ------- 2 1.0 3.1 28 28
+ 0.26384 1 2 cbr 96 ------- 2 1.0 3.1 29 29
- 0.263896 2 3 cbr 96 ------- 2 1.0 3.1 24 24
- 0.26784 1 2 cbr 1000 ------- 2 1.0 3.1 26 26
r 0.269778 2 3 cbr 1000 ------- 2 1.0 3.1 20 20
- 0.27184 1 2 cbr 1000 ------- 2 1.0 3.1 27 27
r 0.274484 2 3 cbr 1000 ------- 2 1.0 3.1 21 21
- 0.27584 1 2 cbr 1000 ------- 2 1.0 3.1 28 28
r 0.27784 1 2 cbr 1000 ------- 2 1.0 3.1 25 25
+ 0.27784 2 3 cbr 1000 ------- 2 1.0 3.1 25 25
- 0.27784 2 3 cbr 1000 ------- 2 1.0 3.1 25 25
r 0.27919 2 3 cbr 1000 ------- 2 1.0 3.1 22 22
- 0.27984 1 2 cbr 96 ------- 2 1.0 3.1 29 29
r 0.28184 1 2 cbr 1000 ------- 2 1.0 3.1 26 26
+ 0.28184 2 3 cbr 1000 ------- 2 1.0 3.1 26 26
- 0.282546 2 3 cbr 1000 ------- 2 1.0 3.1 26 26
r 0.283896 2 3 cbr 1000 ------- 2 1.0 3.1 23 23
r 0.284347 2 3 cbr 96 ------- 2 1.0 3.1 24 24
r 0.28584 1 2 cbr 1000 ------- 2 1.0 3.1 27 27
+ 0.28584 2 3 cbr 1000 ------- 2 1.0 3.1 27 27
- 0.287252 2 3 cbr 1000 ------- 2 1.0 3.1 27 27
r 0.28984 1 2 cbr 1000 ------- 2 1.0 3.1 28 28
+ 0.28984 2 3 cbr 1000 ------- 2 1.0 3.1 28 28
r 0.290224 1 2 cbr 96 ------- 2 1.0 3.1 29 29
+ 0.290224 2 3 cbr 96 ------- 2 1.0 3.1 29 29
- 0.291958 2 3 cbr 1000 ------- 2 1.0 3.1 28 28
+ 0.296608 1 2 cbr 1000 ------- 2 1.0 3.1 30 30
- 0.296608 1 2 cbr 1000 ------- 2 1.0 3.1 30 30
+ 0.296608 1 2 cbr 1000 ------- 2 1.0 3.1 31 31
+ 0.296608 1 2 cbr 1000 ------- 2 1.0 3.1 32 32
+ 0.296608 1 2 cbr 1000 ------- 2 1.0 3.1 33 33
+ 0.296608 1 2 cbr 96 ------- 2 1.0 3.1 34 34
- 0.296664 2 3 cbr 96 ------- 2 1.0 3.1 29 29
- 0.300608 1 2 cbr 1000 ------- 2 1.0 3.1 31 31
r 0.302546 2 3 cbr 1000 ------- 2 1.0 3.1 25 25
- 0.304608 1 2 cbr 1000 ------- 2 1.0 3.1 32 32
r 0.307252 2 3 cbr 1000 ------- 2 1.0 3.1 26 26
- 0.308608 1 2 cbr 1000 ------- 2 1.0 3.1 33 33
r 0.310608 1 2 cbr 1000 ------- 2 1.0 3.1 30 30
+ 0.310608 2 3 cbr 1000 ------- 2 1.0 3.1 30 30
- 0.310608 2 3 cbr 1000 ------- 2 1.0 3.1 30 30
r 0.311958 2 3 cbr 1000 ------- 2 1.0 3.1 27 27
- 0.312608 1 2 cbr 96 ------- 2 1.0 3.1 34 34
r 0.314608 1 2 cbr 1000 ------- 2 1.0 3.1 31 31
+ 0.314608 2 3 cbr 1000 ------- 2 1.0 3.1 31 31
- 0.315314 2 3 cbr 1000 ------- 2 1.0 3.1 31 31
r 0.316664 2 3 cbr 1000 ------- 2 1.0 3.1 28 28
r 0.317115 2 3 cbr 96 ------- 2 1.0 3.1 29 29
r 0.318608 1 2 cbr 1000 ------- 2 1.0 3.1 32 32
+ 0.318608 2 3 cbr 1000 ------- 2 1.0 3.1 32 32
- 0.32002 2 3 cbr 1000 ------- 2 1.0 3.1 32 32
r 0.322608 1 2 cbr 1000 ------- 2 1.0 3.1 33 33
+ 0.322608 2 3 cbr 1000 ------- 2 1.0 3.1 33 33
r 0.322992 1 2 cbr 96 ------- 2 1.0 3.1 34 34
+ 0.322992 2 3 cbr 96 ------- 2 1.0 3.1 34 34
- 0.324726 2 3 cbr 1000 ------- 2 1.0 3.1 33 33
+ 0.329376 1 2 cbr 1000 ------- 2 1.0 3.1 35 35
- 0.329376 1 2 cbr 1000 ------- 2 1.0 3.1 35 35
+ 0.329376 1 2 cbr 1000 ------- 2 1.0 3.1 36 36
+ 0.329376 1 2 cbr 1000 ------- 2 1.0 3.1 37 37
+ 0.329376 1 2 cbr 1000 ------- 2 1.0 3.1 38 38
+ 0.329376 1 2 cbr 96 ------- 2 1.0 3.1 39 39
- 0.329432 2 3 cbr 96 ------- 2 1.0 3.1 34 34
- 0.333376 1 2 cbr 1000 ------- 2 1.0 3.1 36 36
r 0.335314 2 3 cbr 1000 ------- 2 1.0 3.1 30 30
- 0.337376 1 2 cbr 1000 ------- 2 1.0 3.1 37 37
r 0.34002 2 3 cbr 1000 ------- 2 1.0 3.1 31 31
- 0.341376 1 2 cbr 1000 ------- 2 1.0 3.1 38 38
r 0.343376 1 2 cbr 1000 ------- 2 1.0 3.1 35 35
+ 0.343376 2 3 cbr 1000 ------- 2 1.0 3.1 35 35
- 0.343376 2 3 cbr 1000 ------- 2 1.0 3.1 35 35
r 0.344726 2 3 cbr 1000 ------- 2 1.0 3.1 32 32
- 0.345376 1 2 cbr 96 ------- 2 1.0 3.1 39 39
r 0.347376 1 2 cbr 1000 ------- 2 1.0 3.1 36 36
+ 0.347376 2 3 cbr 1000 ------- 2 1.0 3.1 36 36
- 0.348082 2 3 cbr 1000 ------- 2 1.0 3.1 36 36
r 0.349432 2 3 cbr 1000 ------- 2 1.0 3.1 33 33
r 0.349883 2 3 cbr 96 ------- 2 1.0 3.1 34 34
r 0.351376 1 2 cbr 1000 ------- 2 1.0 3.1 37 37
+ 0.351376 2 3 cbr 1000 ------- 2 1.0 3.1 37 37
- 0.352788 2 3 cbr 1000 ------- 2 1.0 3.1 37 37
r 0.355376 1 2 cbr 1000 ------- 2 1.0 3.1 38 38
+ 0.355376 2 3 cbr 1000 ------- 2 1.0 3.1 38 38
r 0.35576 1 2 cbr 96 ------- 2 1.0 3.1 39 39
+ 0.35576 2 3 cbr 96 ------- 2 1.0 3.1 39 39
- 0.357494 2 3 cbr 1000 ------- 2 1.0 3.1 38 38
+ 0.362144 1 2 cbr 1000 ------- 2 1.0 3.1 40 40
- 0.362144 1 2 cbr 1000 ------- 2 1.0 3.1 40 40
+ 0.362144 1 2 cbr 1000 ------- 2 1.0 3.1 41 41
+ 0.362144 1 2 cbr 1000 ------- 2 1.0 3.1 42 42
+ 0.362144 1 2 cbr 1000 ------- 2 1.0 3.1 43 43
+ 0.362144 1 2 cbr 96 ------- 2 1.0 3.1 44 44
- 0.3622 2 3 cbr 96 ------- 2 1.0 3.1 39 39
- 0.366144 1 2 cbr 1000 ------- 2 1.0 3.1 41 41
r 0.368082 2 3 cbr 1000 ------- 2 1.0 3.1 35 35
- 0.370144 1 2 cbr 1000 ------- 2 1.0 3.1 42 42
r 0.372788 2 3 cbr 1000 ------- 2 1.0 3.1 36 36
- 0.374144 1 2 cbr 1000 ------- 2 1.0 3.1 43 43
r 0.376144 1 2 cbr 1000 ------- 2 1.0 3.1 40 40
+ 0.376144 2 3 cbr 1000 ------- 2 1.0 3.1 40 40
- 0.376144 2 3 cbr 1000 ------- 2 1.0 3.1 40 40
r 0.377494 2 3 cbr 1000 ------- 2 1.0 3.1 37 37
- 0.378144 1 2 cbr 96 ------- 2 1.0 3.1 44 44
r 0.380144 1 2 cbr 1000 ------- 2 1.0 3.1 41 41
+ 0.380144 2 3 cbr 1000 ------- 2 1.0 3.1 41 41
- 0.38085 2 3 cbr 1000 ------- 2 1.0 3.1 41 41
r 0.3822 2 3 cbr 1000 ------- 2 1.0 3.1 38 38
r 0.382651 2 3 cbr 96 ------- 2 1.0 3.1 39 39
r 0.384144 1 2 cbr 1000 ------- 2 1.0 3.1 42 42
+ 0.384144 2 3 cbr 1000 ------- 2 1.0 3.1 42 42
- 0.385556 2 3 cbr 1000 ------- 2 1.0 3.1 42 42
r 0.388144 1 2 cbr 1000 ------- 2 1.0 3.1 43 43
+ 0.388144 2 3 cbr 1000 ------- 2 1.0 3.1 43 43
r 0.388528 1 2 cbr 96 ------- 2 1.0 3.1 44 44
+ 0.388528 2 3 cbr 96 ------- 2 1.0 3.1 44 44
- 0.390262 2 3 cbr 1000 ------- 2 1.0 3.1 43 43
+ 0.394912 1 2 cbr 1000 ------- 2 1.0 3.1 45 45
- 0.394912 1 2 cbr 1000 ------- 2 1.0 3.1 45 45
+ 0.394912 1 2 cbr 1000 ------- 2 1.0 3.1 46 46
+ 0.394912 1 2 cbr 1000 ------- 2 1.0 3.1 47 47
+ 0.394912 1 2 cbr 1000 ------- 2 1.0 3.1 48 48
+ 0.394912 1 2 cbr 96 ------- 2 1.0 3.1 49 49
- 0.394968 2 3 cbr 96 ------- 2 1.0 3.1 44 44
- 0.398912 1 2 cbr 1000 ------- 2 1.0 3.1 46 46
r 0.40085 2 3 cbr 1000 ------- 2 1.0 3.1 40 40
- 0.402912 1 2 cbr 1000 ------- 2 1.0 3.1 47 47
r 0.405556 2 3 cbr 1000 ------- 2 1.0 3.1 41 41
- 0.406912 1 2 cbr 1000 ------- 2 1.0 3.1 48 48
r 0.408912 1 2 cbr 1000 ------- 2 1.0 3.1 45 45
+ 0.408912 2 3 cbr 1000 ------- 2 1.0 3.1 45 45
- 0.408912 2 3 cbr 1000 ------- 2 1.0 3.1 45 45
r 0.410262 2 3 cbr 1000 ------- 2 1.0 3.1 42 42
- 0.410912 1 2 cbr 96 ------- 2 1.0 3.1 49 49
r 0.412912 1 2 cbr 1000 ------- 2 1.0 3.1 46 46
+ 0.412912 2 3 cbr 1000 ------- 2 1.0 3.1 46 46
- 0.413618 2 3 cbr 1000 ------- 2 1.0 3.1 46 46
r 0.414968 2 3 cbr 1000 ------- 2 1.0 3.1 43 43
r 0.415419 2 3 cbr 96 ------- 2 1.0 3.1 44 44
r 0.416912 1 2 cbr 1000 ------- 2 1.0 3.1 47 47
+ 0.416912 2 3 cbr 1000 ------- 2 1.0 3.1 47 47
- 0.418324 2 3 cbr 1000 ------- 2 1.0 3.1 47 47
r 0.420912 1 2 cbr 1000 ------- 2 1.0 3.1 48 48
+ 0.420912 2 3 cbr 1000 ------- 2 1.0 3.1 48 48
r 0.421296 1 2 cbr 96 ------- 2 1.0 3.1 49 49
+ 0.421296 2 3 cbr 96 ------- 2 1.0 3.1 49 49
- 0.42303 2 3 cbr 1000 ------- 2 1.0 3.1 48 48
+ 0.42768 1 2 cbr 1000 ------- 2 1.0 3.1 50 50
- 0.42768 1 2 cbr 1000 ------- 2 1.0 3.1 50 50
+ 0.42768 1 2 cbr 1000 ------- 2 1.0 3.1 51 51
+ 0.42768 1 2 cbr 1000 ------- 2 1.0 3.1 52 52
+ 0.42768 1 2 cbr 1000 ------- 2 1.0 3.1 53 53
+ 0.42768 1 2 cbr 96 ------- 2 1.0 3.1 54 54
- 0.427736 2 3 cbr 96 ------- 2 1.0 3.1 49 49
- 0.43168 1 2 cbr 1000 ------- 2 1.0 3.1 51 51
r 0.433618 2 3 cbr 1000 ------- 2 1.0 3.1 45 45
- 0.43568 1 2 cbr 1000 ------- 2 1.0 3.1 52 52
r 0.438324 2 3 cbr 1000 ------- 2 1.0 3.1 46 46
- 0.43968 1 2 cbr 1000 ------- 2 1.0 3.1 53 53
r 0.44168 1 2 cbr 1000 ------- 2 1.0 3.1 50 50
+ 0.44168 2 3 cbr 1000 ------- 2 1.0 3.1 50 50
- 0.44168 2 3 cbr 1000 ------- 2 1.0 3.1 50 50
r 0.44303 2 3 cbr 1000 ------- 2 1.0 3.1 47 47
- 0.44368 1 2 cbr 96 ------- 2 1.0 3.1 54 54
r 0.44568 1 2 cbr 1000 ------- 2 1.0 3.1 51 51
+ 0.44568 2 3 cbr 1000 ------- 2 1.0 3.1 51 51
- 0.446386 2 3 cbr 1000 ------- 2 1.0 3.1 51 51
r 0.447736 2 3 cbr 1000 ------- 2 1.0 3.1 48 48
r 0.448187 2 3 cbr 96 ------- 2 1.0 3.1 49 49
r 0.44968 1 2 cbr 1000 ------- 2 1.0 3.1 52 52
+ 0.44968 2 3 cbr 1000 ------- 2 1.0 3.1 52 52
- 0.451092 2 3 cbr 1000 ------- 2 1.0 3.1 52 52
r 0.45368 1 2 cbr 1000 ------- 2 1.0 3.1 53 53
+ 0.45368 2 3 cbr 1000 ------- 2 1.0 3.1 53 53
r 0.454064 1 2 cbr 96 ------- 2 1.0 3.1 54 54
+ 0.454064 2 3 cbr 96 ------- 2 1.0 3.1 54 54
- 0.455798 2 3 cbr 1000 ------- 2 1.0 3.1 53 53
+ 0.460448 1 2 cbr 1000 ------- 2 1.0 3.1 55 55
- 0.460448 1 2 cbr 1000 ------- 2 1.0 3.1 55 55
+ 0.460448 1 2 cbr 1000 ------- 2 1.0 3.1 56 56
+ 0.460448 1 2 cbr 1000 ------- 2 1.0 3.1 57 57
+ 0.460448 1 2 cbr 1000 ------- 2 1.0 3.1 58 58
+ 0.460448 1 2 cbr 96 ------- 2 1.0 3.1 59 59
- 0.460504 2 3 cbr 96 ------- 2 1.0 3.1 54 54
- 0.464448 1 2 cbr 1000 ------- 2 1.0 3.1 56 56
r 0.466386 2 3 cbr 1000 ------- 2 1.0 3.1 50 50
- 0.468448 1 2 cbr 1000 ------- 2 1.0 3.1 57 57
r 0.471092 2 3 cbr 1000 ------- 2 1.0 3.1 51 51
- 0.472448 1 2 cbr 1000 ------- 2 1.0 3.1 58 58
r 0.474448 1 2 cbr 1000 ------- 2 1.0 3.1 55 55
+ 0.474448 2 3 cbr 1000 ------- 2 1.0 3.1 55 55
- 0.474448 2 3 cbr 1000 ------- 2 1.0 3.1 55 55
r 0.475798 2 3 cbr 1000 ------- 2 1.0 3.1 52 52
- 0.476448 1 2 cbr 96 ------- 2 1.0 3.1 59 59
r 0.478448 1 2 cbr 1000 ------- 2 1.0 3.1 56 56
+ 0.478448 2 3 cbr 1000 ------- 2 1.0 3.1 56 56
- 0.479154 2 3 cbr 1000 ------- 2 1.0 3.1 56 56
r 0.480504 2 3 cbr 1000 ------- 2 1.0 3.1 53 53
r 0.480955 2 3 cbr 96 ------- 2 1.0 3.1 54 54
r 0.482448 1 2 cbr 1000 ------- 2 1.0 3.1 57 57
+ 0.482448 2 3 cbr 1000 ------- 2 1.0 3.1 57 57
- 0.48386 2 3 cbr 1000 ------- 2 1.0 3.1 57 57
r 0.486448 1 2 cbr 1000 ------- 2 1.0 3.1 58 58
+ 0.486448 2 3 cbr 1000 ------- 2 1.0 3.1 58 58
r 0.486832 1 2 cbr 96 ------- 2 1.0 3.1 59 59
+ 0.486832 2 3 cbr 96 ------- 2 1.0 3.1 59 59
- 0.488566 2 3 cbr 1000 ------- 2 1.0 3.1 58 58
+ 0.493216 1 2 cbr 1000 ------- 2 1.0 3.1 60 60
- 0.493216 1 2 cbr 1000 ------- 2 1.0 3.1 60 60
+ 0.493216 1 2 cbr 1000 ------- 2 1.0 3.1 61 61
+ 0.493216 1 2 cbr 1000 ------- 2 1.0 3.1 62 62
+ 0.493216 1 2 cbr 1000 ------- 2 1.0 3.1 63 63
+ 0.493216 1 2 cbr 96 ------- 2 1.0 3.1 64 64
- 0.493272 2 3 cbr 96 ------- 2 1.0 3.1 59 59
- 0.497216 1 2 cbr 1000 ------- 2 1.0 3.1 61 61
r 0.499154 2 3 cbr 1000 ------- 2 1.0 3.1 55 55
- 0.501216 1 2 cbr 1000 ------- 2 1.0 3.1 62 62
r 0.50386 2 3 cbr 1000 ------- 2 1.0 3.1 56 56
- 0.505216 1 2 cbr 1000 ------- 2 1.0 3.1 63 63
r 0.507216 1 2 cbr 1000 ------- 2 1.0 3.1 60 60
+ 0.507216 2 3 cbr 1000 ------- 2 1.0 3.1 60 60
- 0.507216 2 3 cbr 1000 ------- 2 1.0 3.1 60 60
r 0.508566 2 3 cbr 1000 ------- 2 1.0 3.1 57 57
- 0.509216 1 2 cbr 96 ------- 2 1.0 3.1 64 64
r 0.511216 1 2 cbr 1000 ------- 2 1.0 3.1 61 61
+ 0.511216 2 3 cbr 1000 ------- 2 1.0 3.1 61 61
- 0.511922 2 3 cbr 1000 ------- 2 1.0 3.1 61 61
r 0.513272 2 3 cbr 1000 ------- 2 1.0 3.1 58 58
r 0.513723 2 3 cbr 96 ------- 2 1.0 3.1 59 59
r 0.515216 1 2 cbr 1000 ------- 2 1.0 3.1 62 62
+ 0.515216 2 3 cbr 1000 ------- 2 1.0 3.1 62 62
- 0.516628 2 3 cbr 1000 ------- 2 1.0 3.1 62 62
r 0.519216 1 2 cbr 1000 ------- 2 1.0 3.1 63 63
+ 0.519216 2 3 cbr 1000 ------- 2 1.0 3.1 63 63
r 0.5196 1 2 cbr 96 ------- 2 1.0 3.1 64 64
+ 0.5196 2 3 cbr 96 ------- 2 1.0 3.1 64 64
- 0.521334 2 3 cbr 1000 ------- 2 1.0 3.1 63 63
+ 0.525984 1 2 cbr 1000 ------- 2 1.0 3.1 65 65
- 0.525984 1 2 cbr 1000 ------- 2 1.0 3.1 65 65
+ 0.525984 1 2 cbr 1000 ------- 2 1.0 3.1 66 66
+ 0.525984 1 2 cbr 1000 ------- 2 1.0 3.1 67 67
+ 0.525984 1 2 cbr 1000 ------- 2 1.0 3.1 68 68
+ 0.525984 1 2 cbr 96 ------- 2 1.0 3.1 69 69
- 0.52604 2 3 cbr 96 ------- 2 1.0 3.1 64 64
- 0.529984 1 2 cbr 1000 ------- 2 1.0 3.1 66 66
r 0.531922 2 3 cbr 1000 ------- 2 1.0 3.1 60 60
- 0.533984 1 2 cbr 1000 ------- 2 1.0 3.1 67 67
r 0.536628 2 3 cbr 1000 ------- 2 1.0 3.1 61 61
- 0.537984 1 2 cbr 1000 ------- 2 1.0 3.1 68 68
r 0.539984 1 2 cbr 1000 ------- 2 1.0 3.1 65 65
+ 0.539984 2 3 cbr 1000 ------- 2 1.0 3.1 65 65
- 0.539984 2 3 cbr 1000 ------- 2 1.0 3.1 65 65
r 0.541334 2 3 cbr 1000 ------- 2 1.0 3.1 62 62
- 0.541984 1 2 cbr 96 ------- 2 1.0 3.1 69 69
r 0.543984 1 2 cbr 1000 ------- 2 1.0 3.1 66 66
+ 0.543984 2 3 cbr 1000 ------- 2 1.0 3.1 66 66
- 0.54469 2 3 cbr 1000 ------- 2 1.0 3.1 66 66
r 0.54604 2 3 cbr 1000 ------- 2 1.0 3.1 63 63
r 0.546491 2 3 cbr 96 ------- 2 1.0 3.1 64 64
r 0.547984 1 2 cbr 1000 ------- 2 1.0 3.1 67 67
+ 0.547984 2 3 cbr 1000 ------- 2 1.0 3.1 67 67
- 0.549396 2 3 cbr 1000 ------- 2 1.0 3.1 67 67
r 0.551984 1 2 cbr 1000 ------- 2 1.0 3.1 68 68
+ 0.551984 2 3 cbr 1000 ------- 2 1.0 3.1 68 68
r 0.552368 1 2 cbr 96 ------- 2 1.0 3.1 69 69
+ 0.552368 2 3 cbr 96 ------- 2 1.0 3.1 69 69
- 0.554102 2 3 cbr 1000 ------- 2 1.0 3.1 68 68
+ 0.558752 1 2 cbr 1000 ------- 2 1.0 3.1 70 70
- 0.558752 1 2 cbr 1000 ------- 2 1.0 3.1 70 70
+ 0.558752 1 2 cbr 1000 ------- 2 1.0 3.1 71 71
+ 0.558752 1 2 cbr 1000 ------- 2 1.0 3.1 72 72
+ 0.558752 1 2 cbr 1000 ------- 2 1.0 3.1 73 73
+ 0.558752 1 2 cbr 96 ------- 2 1.0 3.1 74 74
- 0.558808 2 3 cbr 96 ------- 2 1.0 3.1 69 69
- 0.562752 1 2 cbr 1000 ------- 2 1.0 3.1 71 71
r 0.56469 2 3 cbr 1000 ------- 2 1.0 3.1 65 65
- 0.566752 1 2 cbr 1000 ------- 2 1.0 3.1 72 72
r 0.569396 2 3 cbr 1000 ------- 2 1.0 3.1 66 66
- 0.570752 1 2 cbr 1000 ------- 2 1.0 3.1 73 73
r 0.572752 1 2 cbr 1000 ------- 2 1.0 3.1 70 70
+ 0.572752 2 3 cbr 1000 ------- 2 1.0 3.1 70 70
- 0.572752 2 3 cbr 1000 ------- 2 1.0 3.1 70 70
r 0.574102 2 3 cbr 1000 ------- 2 1.0 3.1 67 67
- 0.574752 1 2 cbr 96 ------- 2 1.0 3.1 74 74
r 0.576752 1 2 cbr 1000 ------- 2 1.0 3.1 71 71
+ 0.576752 2 3 cbr 1000 ------- 2 1.0 3.1 71 71
- 0.577458 2 3 cbr 1000 ------- 2 1.0 3.1 71 71
r 0.578808 2 3 cbr 1000 ------- 2 1.0 3.1 68 68
r 0.579259 2 3 cbr 96 ------- 2 1.0 3.1 69 69
r 0.580752 1 2 cbr 1000 ------- 2 1.0 3.1 72 72
+ 0.580752 2 3 cbr 1000 ------- 2 1.0 3.1 72 72
- 0.582164 2 3 cbr 1000 ------- 2 1.0 3.1 72 72
r 0.584752 1 2 cbr 1000 ------- 2 1.0 3.1 73 73
+ 0.584752 2 3 cbr 1000 ------- 2 1.0 3.1 73 73
r 0.585136 1 2 cbr 96 ------- 2 1.0 3.1 74 74
+ 0.585136 2 3 cbr 96 ------- 2 1.0 3.1 74 74
- 0.58687 2 3 cbr 1000 ------- 2 1.0 3.1 73 73
+ 0.59152 1 2 cbr 1000 ------- 2 1.0 3.1 75 75
- 0.59152 1 2 cbr 1000 ------- 2 1.0 3.1 75 75
+ 0.59152 1 2 cbr 1000 ------- 2 1.0 3.1 76 76
+ 0.59152 1 2 cbr 1000 ------- 2 1.0 3.1 77 77
+ 0.59152 1 2 cbr 1000 ------- 2 1.0 3.1 78 78
+ 0.59152 1 2 cbr 96 ------- 2 1.0 3.1 79 79
- 0.591576 2 3 cbr 96 ------- 2 1.0 3.1 74 74
- 0.59552 1 2 cbr 1000 ------- 2 1.0 3.1 76 76
r 0.597458 2 3 cbr 1000 ------- 2 1.0 3.1 70 70
- 0.59952 1 2 cbr 1000 ------- 2 1.0 3.1 77 77
r 0.602164 2 3 cbr 1000 ------- 2 1.0 3.1 71 71
- 0.60352 1 2 cbr 1000 ------- 2 1.0 3.1 78 78
r 0.60552 1 2 cbr 1000 ------- 2 1.0 3.1 75 75
+ 0.60552 2 3 cbr 1000 ------- 2 1.0 3.1 75 75
- 0.60552 2 3 cbr 1000 ------- 2 1.0 3.1 75 75
r 0.60687 2 3 cbr 1000 ------- 2 1.0 3.1 72 72
- 0.60752 1 2 cbr 96 ------- 2 1.0 3.1 79 79
r 0.60952 1 2 cbr 1000 ------- 2 1.0 3.1 76 76
+ 0.60952 2 3 cbr 1000 ------- 2 1.0 3.1 76 76
- 0.610226 2 3 cbr 1000 ------- 2 1.0 3.1 76 76
r 0.611576 2 3 cbr 1000 ------- 2 1.0 3.1 73 73
r 0.612027 2 3 cbr 96 ------- 2 1.0 3.1 74 74
r 0.61352 1 2 cbr 1000 ------- 2 1.0 3.1 77 77
+ 0.61352 2 3 cbr 1000 ------- 2 1.0 3.1 77 77
- 0.614932 2 3 cbr 1000 ------- 2 1.0 3.1 77 77
r 0.61752 1 2 cbr 1000 ------- 2 1.0 3.1 78 78
+ 0.61752 2 3 cbr 1000 ------- 2 1.0 3.1 78 78
r 0.617904 1 2 cbr 96 ------- 2 1.0 3.1 79 79
+ 0.617904 2 3 cbr 96 ------- 2 1.0 3.1 79 79
- 0.619638 2 3 cbr 1000 ------- 2 1.0 3.1 78 78
+ 0.624288 1 2 cbr 1000 ------- 2 1.0 3.1 80 80
- 0.624288 1 2 cbr 1000 ------- 2 1.0 3.1 80 80
+ 0.624288 1 2 cbr 1000 ------- 2 1.0 3.1 81 81
+ 0.624288 1 2 cbr 1000 ------- 2 1.0 3.1 82 82
+ 0.624288 1 2 cbr 1000 ------- 2 1.0 3.1 83 83
+ 0.624288 1 2 cbr 96 ------- 2 1.0 3.1 84 84
- 0.624344 2 3 cbr 96 ------- 2 1.0 3.1 79 79
- 0.628288 1 2 cbr 1000 ------- 2 1.0 3.1 81 81
r 0.630226 2 3 cbr 1000 ------- 2 1.0 3.1 75 75
- 0.632288 1 2 cbr 1000 ------- 2 1.0 3.1 82 82
r 0.634932 2 3 cbr 1000 ------- 2 1.0 3.1 76 76
- 0.636288 1 2 cbr 1000 ------- 2 1.0 3.1 83 83
r 0.638288 1 2 cbr 1000 ------- 2 1.0 3.1 80 80
+ 0.638288 2 3 cbr 1000 ------- 2 1.0 3.1 80 80
- 0.638288 2 3 cbr 1000 ------- 2 1.0 3.1 80 80
r 0.639638 2 3 cbr 1000 ------- 2 1.0 3.1 77 77
- 0.640288 1 2 cbr 96 ------- 2 1.0 3.1 84 84
r 0.642288 1 2 cbr 1000 ------- 2 1.0 3.1 81 81
+ 0.642288 2 3 cbr 1000 ------- 2 1.0 3.1 81 81
- 0.642994 2 3 cbr 1000 ------- 2 1.0 3.1 81 81
r 0.644344 2 3 cbr 1000 ------- 2 1.0 3.1 78 78
r 0.644795 2 3 cbr 96 ------- 2 1.0 3.1 79 79
r 0.646288 1 2 cbr 1000 ------- 2 1.0 3.1 82 82
+ 0.646288 2 3 cbr 1000 ------- 2 1.0 3.1 82 82
- 0.6477 2 3 cbr 1000 ------- 2 1.0 3.1 82 82
r 0.650288 1 2 cbr 1000 ------- 2 1.0 3.1 83 83
+ 0.650288 2 3 cbr 1000 ------- 2 1.0 3.1 83 83
r 0.650672 1 2 cbr 96 ------- 2 1.0 3.1 84 84
+ 0.650672 2 3 cbr 96 ------- 2 1.0 3.1 84 84
- 0.652406 2 3 cbr 1000 ------- 2 1.0 3.1 83 83
+ 0.657056 1 2 cbr 1000 ------- 2 1.0 3.1 85 85
- 0.657056 1 2 cbr 1000 ------- 2 1.0 3.1 85 85
+ 0.657056 1 2 cbr 1000 ------- 2 1.0 3.1 86 86
+ 0.657056 1 2 cbr 1000 ------- 2 1.0 3.1 87 87
+ 0.657056 1 2 cbr 1000 ------- 2 1.0 3.1 88 88
+ 0.657056 1 2 cbr 96 ------- 2 1.0 3.1 89 89
- 0.657112 2 3 cbr 96 ------- 2 1.0 3.1 84 84
- 0.661056 1 2 cbr 1000 ------- 2 1.0 3.1 86 86
r 0.662994 2 3 cbr 1000 ------- 2 1.0 3.1 80 80
- 0.665056 1 2 cbr 1000 ------- 2 1.0 3.1 87 87
r 0.6677 2 3 cbr 1000 ------- 2 1.0 3.1 81 81
- 0.669056 1 2 cbr 1000 ------- 2 1.0 3.1 88 88
r 0.671056 1 2 cbr 1000 ------- 2 1.0 3.1 85 85
+ 0.671056 2 3 cbr 1000 ------- 2 1.0 3.1 85 85
- 0.671056 2 3 cbr 1000 ------- 2 1.0 3.1 85 85
r 0.672406 2 3 cbr 1000 ------- 2 1.0 3.1 82 82
- 0.673056 1 2 cbr 96 ------- 2 1.0 3.1 89 89
r 0.675056 1 2 cbr 1000 ------- 2 1.0 3.1 86 86
+ 0.675056 2 3 cbr 1000 ------- 2 1.0 3.1 86 86
- 0.675762 2 3 cbr 1000 ------- 2 1.0 3.1 86 86
r 0.677112 2 3 cbr 1000 ------- 2 1.0 3.1 83 83
r 0.677563 2 3 cbr 96 ------- 2 1.0 3.1 84 84
r 0.679056 1 2 cbr 1000 ------- 2 1.0 3.1 87 87
+ 0.679056 2 3 cbr 1000 ------- 2 1.0 3.1 87 87
- 0.680468 2 3 cbr 1000 ------- 2 1.0 3.1 87 87
r 0.683056 1 2 cbr 1000 ------- 2 1.0 3.1 88 88
+ 0.683056 2 3 cbr 1000 ------- 2 1.0 3.1 88 88
r 0.68344 1 2 cbr 96 ------- 2 1.0 3.1 89 89
+ 0.68344 2 3 cbr 96 ------- 2 1.0 3.1 89 89
- 0.685174 2 3 cbr 1000 ------- 2 1.0 3.1 88 88
+ 0.689824 1 2 cbr 1000 ------- 2 1.0 3.1 90 90
- 0.689824 1 2 cbr 1000 ------- 2 1.0 3.1 90 90
+ 0.689824 1 2 cbr 1000 ------- 2 1.0 3.1 91 91
+ 0.689824 1 2 cbr 1000 ------- 2 1.0 3.1 92 92
+ 0.689824 1 2 cbr 1000 ------- 2 1.0 3.1 93 93
+ 0.689824 1 2 cbr 96 ------- 2 1.0 3.1 94 94
- 0.68988 2 3 cbr 96 ------- 2 1.0 3.1 89 89
- 0.693824 1 2 cbr 1000 ------- 2 1.0 3.1 91 91
r 0.695762 2 3 cbr 1000 ------- 2 1.0 3.1 85 85
- 0.697824 1 2 cbr 1000 ------- 2 1.0 3.1 92 92
r 0.700468 2 3 cbr 1000 ------- 2 1.0 3.1 86 86
- 0.701824 1 2 cbr 1000 ------- 2 1.0 3.1 93 93
r 0.703824 1 2 cbr 1000 ------- 2 1.0 3.1 90 90
+ 0.703824 2 3 cbr 1000 ------- 2 1.0 3.1 90 90
- 0.703824 2 3 cbr 1000 ------- 2 1.0 3.1 90 90
r 0.705174 2 3 cbr 1000 ------- 2 1.0 3.1 87 87
- 0.705824 1 2 cbr 96 ------- 2 1.0 3.1 94 94
r 0.707824 1 2 cbr 1000 ------- 2 1.0 3.1 91 91
+ 0.707824 2 3 cbr 1000 ------- 2 1.0 3.1 91 91
- 0.70853 2 3 cbr 1000 ------- 2 1.0 3.1 91 91
r 0.70988 2 3 cbr 1000 ------- 2 1.0 3.1 88 88
r 0.710331 2 3 cbr 96 ------- 2 1.0 3.1 89 89
r 0.711824 1 2 cbr 1000 ------- 2 1.0 3.1 92 92
+ 0.711824 2 3 cbr 1000 ------- 2 1.0 3.1 92 92
- 0.713236 2 3 cbr 1000 ------- 2 1.0 3.1 92 92
r 0.715824 1 2 cbr 1000 ------- 2 1.0 3.1 93 93
+ 0.715824 2 3 cbr 1000 ------- 2 1.0 3.1 93 93
r 0.716208 1 2 cbr 96 ------- 2 1.0 3.1 94 94
+ 0.716208 2 3 cbr 96 ------- 2 1.0 3.1 94 94
- 0.717942 2 3 cbr 1000 ------- 2 1.0 3.1 93 93
+ 0.722592 1 2 cbr 1000 ------- 2 1.0 3.1 95 95
- 0.722592 1 2 cbr 1000 ------- 2 1.0 3.1 95 95
+ 0.722592 1 2 cbr 1000 ------- 2 1.0 3.1 96 96
+ 0.722592 1 2 cbr 1000 ------- 2 1.0 3.1 97 97
+ 0.722592 1 2 cbr 1000 ------- 2 1.0 3.1 98 98
+ 0.722592 1 2 cbr 96 ------- 2 1.0 3.1 99 99
- 0.722648 2 3 cbr 96 ------- 2 1.0 3.1 94 94
- 0.726592 1 2 cbr 1000 ------- 2 1.0 3.1 96 96
r 0.72853 2 3 cbr 1000 ------- 2 1.0 3.1 90 90
- 0.730592 1 2 cbr 1000 ------- 2 1.0 3.1 97 97
r 0.733236 2 3 cbr 1000 ------- 2 1.0 3.1 91 91
- 0.734592 1 2 cbr 1000 ------- 2 1.0 3.1 98 98
r 0.736592 1 2 cbr 1000 ------- 2 1.0 3.1 95 95
+ 0.736592 2 3 cbr 1000 ------- 2 1.0 3.1 95 95
- 0.736592 2 3 cbr 1000 ------- 2 1.0 3.1 95 95
r 0.737942 2 3 cbr 1000 ------- 2 1.0 3.1 92 92
- 0.738592 1 2 cbr 96 ------- 2 1.0 3.1 99 99
r 0.740592 1 2 cbr 1000 ------- 2 1.0 3.1 96 96
+ 0.740592 2 3 cbr 1000 ------- 2 1.0 3.1 96 96
- 0.741298 2 3 cbr 1000 ------- 2 1.0 3.1 96 96
r 0.742648 2 3 cbr 1000 ------- 2 1.0 3.1 93 93
r 0.743099 2 3 cbr 96 ------- 2 1.0 3.1 94 94
r 0.744592 1 2 cbr 1000 ------- 2 1.0 3.1 97 97
+ 0.744592 2 3 cbr 1000 ------- 2 1.0 3.1 97 97
- 0.746004 2 3 cbr 1000 ------- 2 1.0 3.1 97 97
r 0.748592 1 2 cbr 1000 ------- 2 1.0 3.1 98 98
+ 0.748592 2 3 cbr 1000 ------- 2 1.0 3.1 98 98
r 0.748976 1 2 cbr 96 ------- 2 1.0 3.1 99 99
+ 0.748976 2 3 cbr 96 ------- 2 1.0 3.1 99 99
- 0.75071 2 3 cbr 1000 ------- 2 1.0 3.1 98 98
+ 0.75536 1 2 cbr 1000 ------- 2 1.0 3.1 100 100
- 0.75536 1 2 cbr 1000 ------- 2 1.0 3.1 100 100
+ 0.75536 1 2 cbr 1000 ------- 2 1.0 3.1 101 101
+ 0.75536 1 2 cbr 1000 ------- 2 1.0 3.1 102 102
+ 0.75536 1 2 cbr 1000 ------- 2 1.0 3.1 103 103
+ 0.75536 1 2 cbr 96 ------- 2 1.0 3.1 104 104
- 0.755416 2 3 cbr 96 ------- 2 1.0 3.1 99 99
- 0.75936 1 2 cbr 1000 ------- 2 1.0 3.1 101 101
r 0.761298 2 3 cbr 1000 ------- 2 1.0 3.1 95 95
- 0.76336 1 2 cbr 1000 ------- 2 1.0 3.1 102 102
r 0.766004 2 3 cbr 1000 ------- 2 1.0 3.1 96 96
- 0.76736 1 2 cbr 1000 ------- 2 1.0 3.1 103 103
r 0.76936 1 2 cbr 1000 ------- 2 1.0 3.1 100 100
+ 0.76936 2 3 cbr 1000 ------- 2 1.0 3.1 100 100
- 0.76936 2 3 cbr 1000 ------- 2 1.0 3.1 100 100
r 0.77071 2 3 cbr 1000 ------- 2 1.0 3.1 97 97
- 0.77136 1 2 cbr 96 ------- 2 1.0 3.1 104 104
r 0.77336 1 2 cbr 1000 ------- 2 1.0 3.1 101 101
+ 0.77336 2 3 cbr 1000 ------- 2 1.0 3.1 101 101
- 0.774066 2 3 cbr 1000 ------- 2 1.0 3.1 101 101
r 0.775416 2 3 cbr 1000 ------- 2 1.0 3.1 98 98
r 0.775867 2 3 cbr 96 ------- 2 1.0 3.1 99 99
r 0.77736 1 2 cbr 1000 ------- 2 1.0 3.1 102 102
+ 0.77736 2 3 cbr 1000 ------- 2 1.0 3.1 102 102
- 0.778772 2 3 cbr 1000 ------- 2 1.0 3.1 102 102
r 0.78136 1 2 cbr 1000 ------- 2 1.0 3.1 103 103
+ 0.78136 2 3 cbr 1000 ------- 2 1.0 3.1 103 103
r 0.781744 1 2 cbr 96 ------- 2 1.0 3.1 104 104
+ 0.781744 2 3 cbr 96 ------- 2 1.0 3.1 104 104
- 0.783478 2 3 cbr 1000 ------- 2 1.0 3.1 103 103
+ 0.788128 1 2 cbr 1000 ------- 2 1.0 3.1 105 105
- 0.788128 1 2 cbr 1000 ------- 2 1.0 3.1 105 105
+ 0.788128 1 2 cbr 1000 ------- 2 1.0 3.1 106 106
+ 0.788128 1 2 cbr 1000 ------- 2 1.0 3.1 107 107
+ 0.788128 1 2 cbr 1000 ------- 2 1.0 3.1 108 108
+ 0.788128 1 2 cbr 96 ------- 2 1.0 3.1 109 109
- 0.788184 2 3 cbr 96 ------- 2 1.0 3.1 104 104
- 0.792128 1 2 cbr 1000 ------- 2 1.0 3.1 106 106
r 0.794066 2 3 cbr 1000 ------- 2 1.0 3.1 100 100
- 0.796128 1 2 cbr 1000 ------- 2 1.0 3.1 107 107
r 0.798772 2 3 cbr 1000 ------- 2 1.0 3.1 101 101